31
energy = -37.6078912750108
Zr      -1.31556586861226       1.29087284490011      -0.06360014904044
C       -0.59874781303150       1.99906902177929       2.15710910028351
C       -0.63085201074294       1.70626655768019      -2.37569845580874
C       -1.40602646674370       0.84756489945908       2.33523268419226
C       -1.41613882451603       3.03021058724492       1.62979336794871
C       -0.95881250580022       2.96012041828290      -1.79636451076720
C       -1.80854117539429       0.92296438261800      -2.42110641520765
C       -2.72630908404053       1.16969842230413       1.92817630128617
C       -2.73473009044216       2.52014042849790       1.50283615705360
C       -2.34913148826403       2.96217186347050      -1.52276984218533
C       -2.87256307186216       1.69596024788853      -1.88366963699047
H        0.42452832408501       2.11565939315270       2.50366314474957
H        0.31599727500502       1.45420558240308      -2.84394468189853
H       -1.10238356019248      -0.06515857044949       2.84100914399494
H       -1.12333483111748       4.07019508947629       1.50398492723019
H       -0.29953458645358       3.82342748170040      -1.73718880898634
H       -1.91203820642511      -0.03007178558644      -2.93301666987265
H       -3.60910214116675       0.55746500934592       2.09283795599561
H       -3.62179342170018       3.10356193255183       1.27062598789085
H       -2.93327192187386       3.82644144945034      -1.21842357625787
H       -3.92803639216078       1.43510832787861      -1.91801727184234
H        0.95442834848540      -0.13604349241838       0.83526499418243
H        0.95208695759677      -0.17889516497827      -0.93025128703109
C        0.74811298314974       0.46197721806877      -0.06231657900473
H        1.48512126578260       1.27886346094180      -0.08420637078983
C       -1.76128175437124      -1.71373363771351      -0.14820957365650
C       -3.05486803770167      -1.41950924380309      -0.26610780632020
H       -3.71241318484795      -1.36925523313916       0.59535137561889
H       -1.31397361144169      -1.93840760179937       0.81735699435813
H       -1.13746852724458      -1.89974471015211      -1.01945451564003
H       -3.53640202655081      -1.32673312807406      -1.23403244540666
