31
energy = -37.6040077066230
Zr      -1.39003783484505       1.26080389751280      -0.07352980097434
C       -0.60699259111950       2.01738025653098       2.09822487288159
C       -0.61586031809102       1.82390098734345      -2.31597555624110
C       -1.42709900634777       0.88245228214728       2.32541917205271
C       -1.42975105795805       3.05762094573957       1.59720132985969
C       -1.02382351170050       3.04202235206839      -1.71334044134442
C       -1.75875749730937       1.00139767712014      -2.46028012495437
C       -2.75723003480027       1.22445181765170       1.96693090367761
C       -2.75899419132850       2.56918673836129       1.52539602011285
C       -2.42700049126270       2.98518094561014      -1.52513824552300
C       -2.88085977448582       1.71673196589648      -1.95967866536390
H        0.43011861674264       2.12347468937085       2.40560811537058
H        0.36944885849081       1.62057334908786      -2.72511749389444
H       -1.12280032890881      -0.02540836109948       2.83910021071862
H       -1.13072877514839       4.09387245285123       1.45928152726984
H       -0.40564773891771       3.92859679050721      -1.59328093210453
H       -1.79724195040823       0.06439299039921      -3.00966925656652
H       -3.64550078462152       0.63601722347894       2.18141449903648
H       -3.64467092121719       3.16782663148842       1.32971702762284
H       -3.06023321185915       3.82049527514640      -1.23951947117096
H       -3.92303938550321       1.42902203206712      -2.07774828315233
H        0.85924380470535      -0.49752754599329       0.67180626362420
H        0.73899385313859      -0.39682390963958      -1.07534803348278
C        0.55900520499383       0.16577656980668      -0.14943235898577
H        1.25504029418638       1.01931255040223      -0.14463662964178
C       -1.60185028808748      -1.78600177851592      -0.02383336490040
C       -2.83159858056094      -1.31554832057010      -0.23749616884738
H       -3.52171511927066      -1.13061849719143       0.58176565881197
H       -1.21391553814202      -1.95853817047729       0.97625978527155
H       -0.96934566945777      -2.11872524631597      -0.84020392111015
H       -3.25020147949938      -1.26690653980385      -1.23903309997413
