31
energy = -37.6066434606421
Zr      -1.36304429940700       1.27530879279771      -0.06865212703435
C       -0.60343317189876       2.01115135628141       2.12238205645984
C       -0.62146588540639       1.77695144646450      -2.34042678543328
C       -1.41874611258871       0.86951335719769       2.32971576454889
C       -1.42442213867613       3.04783994768751       1.61134432223234
C       -0.99722791989238       3.01049754176587      -1.74757084758794
C       -1.77921308661078       0.96953677221381      -2.44449552392565
C       -2.74525255562248       1.20329198746677       1.95193726404289
C       -2.74975835521621       2.55062373022060       1.51754248779809
C       -2.39617019602890       2.97715936010463      -1.52496299953548
C       -2.87860348525201       1.70868488926138      -1.92948747372894
H        0.42836368555503       2.12131048169952       2.44552971196531
H        0.34897645677811       1.55344548894990      -2.77375272529025
H       -1.11420327009220      -0.04087057947012       2.83888798969582
H       -1.12814389103545       4.08579143059169       1.47886342968821
H       -0.36191295537763       3.88817603559947      -1.65288049861247
H       -1.84351149789442       0.02429734671005      -2.97717334359140
H       -3.63140784813062       0.60478628292797       2.14650718174182
H       -3.63643779888400       3.14296748735764       1.30754505764840
H       -3.01021676407076       3.82428802701079      -1.23198278922587
H       -3.92690674361525       1.43148222209084      -2.01467179865533
H        0.89162367119320      -0.35333457133135       0.74251170403623
H        0.82039817502579      -0.31242071856377      -1.01494042944702
C        0.63576719251854       0.28570057257115      -0.11260800584416
H        1.35754445467477       1.11689708737173      -0.12223035934240
C       -1.66225410664802      -1.75643507536950      -0.07723337658759
C       -2.92305878497333      -1.35977731507187      -0.24868954872033
H       -3.60129971468865      -1.22894825573295       0.58952912902303
H       -1.24907741891714      -1.95050387651544       0.90921461835312
H       -1.03121169326774      -2.02885917229283      -0.91819719935697
H       -3.36873939014387      -1.29416002901336      -1.23669134723632
