31
energy = -37.5932498515311
Zr      -1.43384918320384       1.19102747111816      -0.08156240539263
C       -0.61423620354355       2.01825267209496       2.06409201796986
C       -0.61256873438197       1.87144564234210      -2.28341005049689
C       -1.43926671162343       0.89333897347021       2.32221799976894
C       -1.43839096583870       3.06088643528603       1.57269743035436
C       -1.05680896910058       3.06942119389322      -1.66773663268800
C       -1.73754698662871       1.03654699315515      -2.48202200264307
C       -2.77378563294038       1.24492163407091       1.98666573596536
C       -2.77142985561710       2.58450685978667       1.53001022210586
C       -2.46269150540344       2.98893884695704      -1.52276256095599
C       -2.88501332991129       1.72410455411778      -1.99594605937550
H        0.42843245119422       2.12195555146414       2.35275347542323
H        0.38933005945937       1.69236817982841      -2.66267310936195
H       -1.13372075461906      -0.00991404891733       2.84291564101925
H       -1.13511601529680       4.09434718010267       1.42739890541107
H       -0.45843053217123       3.96454858505827      -1.51845917035679
H       -1.74640945862284       0.11170646498991      -3.05260307618513
H       -3.66413485962850       0.67007554093921       2.22747018088346
H       -3.65422225493774       3.19207381514624       1.35050765156686
H       -3.11481155375644       3.81201094611545      -1.24492970274753
H       -3.91922021217261       1.42934594840403      -2.15758924518721
H        0.87898143779582      -0.70569140213136       0.57182993529016
H        0.67413280672678      -0.52303121715462      -1.15560299474896
C        0.44953724406903      -0.04890106941843      -0.19244646322527
H        0.99052082145819       0.91263002894150      -0.14155054560262
C       -1.49871954539749      -1.73823490647491       0.03912309169112
C       -2.69444900718580      -1.19211163664468      -0.22366025194067
H       -3.40933000370118      -1.00869814291823       0.57816188334357
H       -1.15705689180621      -1.91921888300197       1.05548563876375
H       -0.89422213043412      -2.18428637179913      -0.74414918675230
H       -3.08854897137382      -1.19997378783993      -1.23936281381812
