31
energy = -37.6073548896708
Zr      -1.34831433080946       1.27974231398098      -0.06676059171871
C       -0.60177387211687       2.00718300465385       2.13370886576999
C       -0.62434874228242       1.75348546764277      -2.35220633868675
C       -1.41452280943287       0.86227626861483       2.33156751134336
C       -1.42175769725457       3.04193202962019       1.61724915096115
C       -0.98413898542800       2.99416283306490      -1.76393630189378
C       -1.78909769401469       0.95393846681585      -2.43677257578788
C       -2.73914367077432       1.19205908820001       1.94416802859760
C       -2.74500123149470       2.54045129735335       1.51278909781938
C       -2.38053247990272       2.97261863879487      -1.52436083091438
C       -2.87692061150726       1.70457483084432      -1.91421424047297
H        0.42719993200564       2.11957867248938       2.46473241448233
H        0.33835312885521       1.52017816898262      -2.79723004072421
H       -1.10999527643244      -0.04895846684567       2.83922528024463
H       -1.12683003484686       4.08064761224583       1.48725005535030
H       -0.34062065367214       3.86710877713451      -1.68155544394573
H       -1.86632513781699       0.00551564995682      -2.96186836919939
H       -3.62413644425403       0.58883381187229       2.12901090611570
H       -3.63193872210263       3.12969895607888       1.29537909019508
H       -2.98473045970818       3.82542486197426      -1.22751994052886
H       -3.92784629124580       1.43293358084470      -1.98290585123957
H        0.91227365473552      -0.28162272998191       0.77503148986135
H        0.86367401359538      -0.26930304313965      -0.98616370159594
C        0.67344894123694       0.34377260804750      -0.09533281064123
H        1.40129597308411       1.16955458670642      -0.10985327671403
C       -1.69415621410198      -1.74020937711273      -0.10132334294610
C       -2.96783147296565      -1.37998774302665      -0.25408018971706
H       -3.63949017238145      -1.27663647639670       0.59249644994396
H       -1.26913369264819      -1.94517448835173       0.87771740941501
H       -1.06478159636190      -1.98351856861719      -0.95382146554951
H       -3.42592279855007      -1.30586858146549      -1.23555689974552
